<?xml version="1.0" encoding="UTF-8"?>

<!-- generated on 2021-11-23 13:11:30 by Eclipse SUMO GUI Version 1.10.0
<configuration xmlns:xsi="http://www.w3.org/2001/XMLSchema-instance" xsi:noNamespaceSchemaLocation="http://sumo.dlr.de/xsd/sumoConfiguration.xsd">

    <input>
        <net-file value="../net-files/config/../topology/topology.net.xml"/>
        <route-files value="../net-files/config/../flows/flows.rou.xml"/>
        <additional-files value="../net-files/config/../topology/topology.tll.xml,../net-files/config/../topology/topology.det.xml"/>
    </input>

    <time>
        <begin value="0"/>
    </time>

    <report>
        <verbose value="true"/>
        <no-warnings value="true"/>
        <no-step-log value="true"/>
    </report>

    <traci_server>
        <remote-port value="37345"/>
    </traci_server>

    <gui_only>
        <gui-settings-file value="../net-files/config/../topology/topology.view.xml"/>
    </gui_only>

</configuration>
-->

<detector xmlns:xsi="http://www.w3.org/2001/XMLSchema-instance" xsi:noNamespaceSchemaLocation="http://sumo.dlr.de/xsd/det_e1_file.xsd">
    <interval begin="0.00" end="300.00" id="TLSc1_actuated_program_time_gap_InductLoopOn_n1i_0" nVehContrib="0" flow="0.00" occupancy="0.00" speed="-1.00" harmonicMeanSpeed="-1.00" length="-1.00" nVehEntered="0"/>
    <interval begin="0.00" end="300.00" id="TLSc1_actuated_program_time_gap_InductLoopOn_n1i_1" nVehContrib="3" flow="36.00" occupancy="0.40" speed="12.53" harmonicMeanSpeed="12.45" length="5.00" nVehEntered="3"/>
    <interval begin="0.00" end="300.00" id="TLSc1_actuated_program_time_gap_InductLoopOn_e1i_0" nVehContrib="0" flow="0.00" occupancy="0.00" speed="-1.00" harmonicMeanSpeed="-1.00" length="-1.00" nVehEntered="0"/>
    <interval begin="0.00" end="300.00" id="TLSc1_actuated_program_time_gap_InductLoopOn_e1i_1" nVehContrib="1" flow="12.00" occupancy="0.13" speed="12.49" harmonicMeanSpeed="12.49" length="5.00" nVehEntered="1"/>
    <interval begin="0.00" end="300.00" id="TLSc1_actuated_program_time_gap_InductLoopOn_s1i_0" nVehContrib="0" flow="0.00" occupancy="0.00" speed="-1.00" harmonicMeanSpeed="-1.00" length="-1.00" nVehEntered="0"/>
    <interval begin="0.00" end="300.00" id="TLSc1_actuated_program_time_gap_InductLoopOn_s1i_1" nVehContrib="1" flow="12.00" occupancy="0.12" speed="14.42" harmonicMeanSpeed="14.42" length="5.00" nVehEntered="1"/>
    <interval begin="0.00" end="300.00" id="TLSc1_actuated_program_time_gap_InductLoopOn_w1i_0" nVehContrib="0" flow="0.00" occupancy="0.00" speed="-1.00" harmonicMeanSpeed="-1.00" length="-1.00" nVehEntered="0"/>
    <interval begin="0.00" end="300.00" id="TLSc1_actuated_program_time_gap_InductLoopOn_w1i_1" nVehContrib="1" flow="12.00" occupancy="0.11" speed="14.54" harmonicMeanSpeed="14.54" length="5.00" nVehEntered="1"/>
    <interval begin="0.00" end="300.00" id="TLSc1_actuated_program_time_loss_InductLoopOn_n1i_0" nVehContrib="0" flow="0.00" occupancy="0.00" speed="-1.00" harmonicMeanSpeed="-1.00" length="-1.00" nVehEntered="0"/>
    <interval begin="0.00" end="300.00" id="TLSc1_actuated_program_time_loss_InductLoopOn_n1i_1" nVehContrib="3" flow="36.00" occupancy="0.40" speed="12.53" harmonicMeanSpeed="12.45" length="5.00" nVehEntered="3"/>
    <interval begin="0.00" end="300.00" id="TLSc1_actuated_program_time_loss_InductLoopOn_e1i_0" nVehContrib="0" flow="0.00" occupancy="0.00" speed="-1.00" harmonicMeanSpeed="-1.00" length="-1.00" nVehEntered="0"/>
    <interval begin="0.00" end="300.00" id="TLSc1_actuated_program_time_loss_InductLoopOn_e1i_1" nVehContrib="1" flow="12.00" occupancy="0.13" speed="12.49" harmonicMeanSpeed="12.49" length="5.00" nVehEntered="1"/>
    <interval begin="0.00" end="300.00" id="TLSc1_actuated_program_time_loss_InductLoopOn_s1i_0" nVehContrib="0" flow="0.00" occupancy="0.00" speed="-1.00" harmonicMeanSpeed="-1.00" length="-1.00" nVehEntered="0"/>
    <interval begin="0.00" end="300.00" id="TLSc1_actuated_program_time_loss_InductLoopOn_s1i_1" nVehContrib="1" flow="12.00" occupancy="0.12" speed="14.42" harmonicMeanSpeed="14.42" length="5.00" nVehEntered="1"/>
    <interval begin="0.00" end="300.00" id="TLSc1_actuated_program_time_loss_InductLoopOn_w1i_0" nVehContrib="0" flow="0.00" occupancy="0.00" speed="-1.00" harmonicMeanSpeed="-1.00" length="-1.00" nVehEntered="0"/>
    <interval begin="0.00" end="300.00" id="TLSc1_actuated_program_time_loss_InductLoopOn_w1i_1" nVehContrib="1" flow="12.00" occupancy="0.11" speed="14.54" harmonicMeanSpeed="14.54" length="5.00" nVehEntered="1"/>
    <interval begin="300.00" end="600.00" id="TLSc1_actuated_program_time_gap_InductLoopOn_n1i_0" nVehContrib="0" flow="0.00" occupancy="0.00" speed="-1.00" harmonicMeanSpeed="-1.00" length="-1.00" nVehEntered="0"/>
    <interval begin="300.00" end="600.00" id="TLSc1_actuated_program_time_gap_InductLoopOn_n1i_1" nVehContrib="2" flow="24.00" occupancy="0.28" speed="12.06" harmonicMeanSpeed="12.04" length="5.00" nVehEntered="2"/>
    <interval begin="300.00" end="600.00" id="TLSc1_actuated_program_time_gap_InductLoopOn_e1i_0" nVehContrib="0" flow="0.00" occupancy="0.00" speed="-1.00" harmonicMeanSpeed="-1.00" length="-1.00" nVehEntered="0"/>
    <interval begin="300.00" end="600.00" id="TLSc1_actuated_program_time_gap_InductLoopOn_e1i_1" nVehContrib="0" flow="0.00" occupancy="0.00" speed="-1.00" harmonicMeanSpeed="-1.00" length="-1.00" nVehEntered="0"/>
    <interval begin="300.00" end="600.00" id="TLSc1_actuated_program_time_gap_InductLoopOn_s1i_0" nVehContrib="0" flow="0.00" occupancy="0.00" speed="-1.00" harmonicMeanSpeed="-1.00" length="-1.00" nVehEntered="0"/>
    <interval begin="300.00" end="600.00" id="TLSc1_actuated_program_time_gap_InductLoopOn_s1i_1" nVehContrib="1" flow="12.00" occupancy="0.12" speed="13.92" harmonicMeanSpeed="13.92" length="5.00" nVehEntered="1"/>
    <interval begin="300.00" end="600.00" id="TLSc1_actuated_program_time_gap_InductLoopOn_w1i_0" nVehContrib="0" flow="0.00" occupancy="0.00" speed="-1.00" harmonicMeanSpeed="-1.00" length="-1.00" nVehEntered="0"/>
    <interval begin="300.00" end="600.00" id="TLSc1_actuated_program_time_gap_InductLoopOn_w1i_1" nVehContrib="0" flow="0.00" occupancy="0.00" speed="-1.00" harmonicMeanSpeed="-1.00" length="-1.00" nVehEntered="0"/>
    <interval begin="300.00" end="600.00" id="TLSc1_actuated_program_time_loss_InductLoopOn_n1i_0" nVehContrib="0" flow="0.00" occupancy="0.00" speed="-1.00" harmonicMeanSpeed="-1.00" length="-1.00" nVehEntered="0"/>
    <interval begin="300.00" end="600.00" id="TLSc1_actuated_program_time_loss_InductLoopOn_n1i_1" nVehContrib="2" flow="24.00" occupancy="0.28" speed="12.06" harmonicMeanSpeed="12.04" length="5.00" nVehEntered="2"/>
    <interval begin="300.00" end="600.00" id="TLSc1_actuated_program_time_loss_InductLoopOn_e1i_0" nVehContrib="0" flow="0.00" occupancy="0.00" speed="-1.00" harmonicMeanSpeed="-1.00" length="-1.00" nVehEntered="0"/>
    <interval begin="300.00" end="600.00" id="TLSc1_actuated_program_time_loss_InductLoopOn_e1i_1" nVehContrib="0" flow="0.00" occupancy="0.00" speed="-1.00" harmonicMeanSpeed="-1.00" length="-1.00" nVehEntered="0"/>
    <interval begin="300.00" end="600.00" id="TLSc1_actuated_program_time_loss_InductLoopOn_s1i_0" nVehContrib="0" flow="0.00" occupancy="0.00" speed="-1.00" harmonicMeanSpeed="-1.00" length="-1.00" nVehEntered="0"/>
    <interval begin="300.00" end="600.00" id="TLSc1_actuated_program_time_loss_InductLoopOn_s1i_1" nVehContrib="1" flow="12.00" occupancy="0.12" speed="13.92" harmonicMeanSpeed="13.92" length="5.00" nVehEntered="1"/>
    <interval begin="300.00" end="600.00" id="TLSc1_actuated_program_time_loss_InductLoopOn_w1i_0" nVehContrib="0" flow="0.00" occupancy="0.00" speed="-1.00" harmonicMeanSpeed="-1.00" length="-1.00" nVehEntered="0"/>
    <interval begin="300.00" end="600.00" id="TLSc1_actuated_program_time_loss_InductLoopOn_w1i_1" nVehContrib="0" flow="0.00" occupancy="0.00" speed="-1.00" harmonicMeanSpeed="-1.00" length="-1.00" nVehEntered="0"/>
    <interval begin="600.00" end="900.00" id="TLSc1_actuated_program_time_gap_InductLoopOn_n1i_0" nVehContrib="0" flow="0.00" occupancy="0.00" speed="-1.00" harmonicMeanSpeed="-1.00" length="-1.00" nVehEntered="0"/>
    <interval begin="600.00" end="900.00" id="TLSc1_actuated_program_time_gap_InductLoopOn_n1i_1" nVehContrib="3" flow="36.00" occupancy="0.40" speed="12.70" harmonicMeanSpeed="12.57" length="5.00" nVehEntered="3"/>
    <interval begin="600.00" end="900.00" id="TLSc1_actuated_program_time_gap_InductLoopOn_e1i_0" nVehContrib="0" flow="0.00" occupancy="0.00" speed="-1.00" harmonicMeanSpeed="-1.00" length="-1.00" nVehEntered="0"/>
    <interval begin="600.00" end="900.00" id="TLSc1_actuated_program_time_gap_InductLoopOn_e1i_1" nVehContrib="0" flow="0.00" occupancy="0.00" speed="-1.00" harmonicMeanSpeed="-1.00" length="-1.00" nVehEntered="0"/>
    <interval begin="600.00" end="900.00" id="TLSc1_actuated_program_time_gap_InductLoopOn_s1i_0" nVehContrib="0" flow="0.00" occupancy="0.00" speed="-1.00" harmonicMeanSpeed="-1.00" length="-1.00" nVehEntered="0"/>
    <interval begin="600.00" end="900.00" id="TLSc1_actuated_program_time_gap_InductLoopOn_s1i_1" nVehContrib="1" flow="12.00" occupancy="0.13" speed="13.27" harmonicMeanSpeed="13.27" length="5.00" nVehEntered="1"/>
    <interval begin="600.00" end="900.00" id="TLSc1_actuated_program_time_gap_InductLoopOn_w1i_0" nVehContrib="0" flow="0.00" occupancy="0.00" speed="-1.00" harmonicMeanSpeed="-1.00" length="-1.00" nVehEntered="0"/>
    <interval begin="600.00" end="900.00" id="TLSc1_actuated_program_time_gap_InductLoopOn_w1i_1" nVehContrib="0" flow="0.00" occupancy="0.00" speed="-1.00" harmonicMeanSpeed="-1.00" length="-1.00" nVehEntered="0"/>
    <interval begin="600.00" end="900.00" id="TLSc1_actuated_program_time_loss_InductLoopOn_n1i_0" nVehContrib="0" flow="0.00" occupancy="0.00" speed="-1.00" harmonicMeanSpeed="-1.00" length="-1.00" nVehEntered="0"/>
    <interval begin="600.00" end="900.00" id="TLSc1_actuated_program_time_loss_InductLoopOn_n1i_1" nVehContrib="3" flow="36.00" occupancy="0.40" speed="12.70" harmonicMeanSpeed="12.57" length="5.00" nVehEntered="3"/>
    <interval begin="600.00" end="900.00" id="TLSc1_actuated_program_time_loss_InductLoopOn_e1i_0" nVehContrib="0" flow="0.00" occupancy="0.00" speed="-1.00" harmonicMeanSpeed="-1.00" length="-1.00" nVehEntered="0"/>
    <interval begin="600.00" end="900.00" id="TLSc1_actuated_program_time_loss_InductLoopOn_e1i_1" nVehContrib="0" flow="0.00" occupancy="0.00" speed="-1.00" harmonicMeanSpeed="-1.00" length="-1.00" nVehEntered="0"/>
    <interval begin="600.00" end="900.00" id="TLSc1_actuated_program_time_loss_InductLoopOn_s1i_0" nVehContrib="0" flow="0.00" occupancy="0.00" speed="-1.00" harmonicMeanSpeed="-1.00" length="-1.00" nVehEntered="0"/>
    <interval begin="600.00" end="900.00" id="TLSc1_actuated_program_time_loss_InductLoopOn_s1i_1" nVehContrib="1" flow="12.00" occupancy="0.13" speed="13.27" harmonicMeanSpeed="13.27" length="5.00" nVehEntered="1"/>
    <interval begin="600.00" end="900.00" id="TLSc1_actuated_program_time_loss_InductLoopOn_w1i_0" nVehContrib="0" flow="0.00" occupancy="0.00" speed="-1.00" harmonicMeanSpeed="-1.00" length="-1.00" nVehEntered="0"/>
    <interval begin="600.00" end="900.00" id="TLSc1_actuated_program_time_loss_InductLoopOn_w1i_1" nVehContrib="0" flow="0.00" occupancy="0.00" speed="-1.00" harmonicMeanSpeed="-1.00" length="-1.00" nVehEntered="0"/>
    <interval begin="900.00" end="1026.00" id="TLSc1_actuated_program_time_gap_InductLoopOn_n1i_0" nVehContrib="0" flow="0.00" occupancy="0.00" speed="-1.00" harmonicMeanSpeed="-1.00" length="-1.00" nVehEntered="0"/>
    <interval begin="900.00" end="1026.00" id="TLSc1_actuated_program_time_gap_InductLoopOn_n1i_1" nVehContrib="1" flow="28.57" occupancy="0.31" speed="12.84" harmonicMeanSpeed="12.84" length="5.00" nVehEntered="1"/>
    <interval begin="900.00" end="1026.00" id="TLSc1_actuated_program_time_gap_InductLoopOn_e1i_0" nVehContrib="0" flow="0.00" occupancy="0.00" speed="-1.00" harmonicMeanSpeed="-1.00" length="-1.00" nVehEntered="0"/>
    <interval begin="900.00" end="1026.00" id="TLSc1_actuated_program_time_gap_InductLoopOn_e1i_1" nVehContrib="1" flow="28.57" occupancy="0.31" speed="12.74" harmonicMeanSpeed="12.74" length="5.00" nVehEntered="1"/>
    <interval begin="900.00" end="1026.00" id="TLSc1_actuated_program_time_gap_InductLoopOn_s1i_0" nVehContrib="0" flow="0.00" occupancy="0.00" speed="-1.00" harmonicMeanSpeed="-1.00" length="-1.00" nVehEntered="0"/>
    <interval begin="900.00" end="1026.00" id="TLSc1_actuated_program_time_gap_InductLoopOn_s1i_1" nVehContrib="1" flow="28.57" occupancy="0.32" speed="12.26" harmonicMeanSpeed="12.26" length="5.00" nVehEntered="1"/>
    <interval begin="900.00" end="1026.00" id="TLSc1_actuated_program_time_gap_InductLoopOn_w1i_0" nVehContrib="0" flow="0.00" occupancy="0.00" speed="-1.00" harmonicMeanSpeed="-1.00" length="-1.00" nVehEntered="0"/>
    <interval begin="900.00" end="1026.00" id="TLSc1_actuated_program_time_gap_InductLoopOn_w1i_1" nVehContrib="0" flow="0.00" occupancy="0.00" speed="-1.00" harmonicMeanSpeed="-1.00" length="-1.00" nVehEntered="0"/>
    <interval begin="900.00" end="1026.00" id="TLSc1_actuated_program_time_loss_InductLoopOn_n1i_0" nVehContrib="0" flow="0.00" occupancy="0.00" speed="-1.00" harmonicMeanSpeed="-1.00" length="-1.00" nVehEntered="0"/>
    <interval begin="900.00" end="1026.00" id="TLSc1_actuated_program_time_loss_InductLoopOn_n1i_1" nVehContrib="1" flow="28.57" occupancy="0.31" speed="12.84" harmonicMeanSpeed="12.84" length="5.00" nVehEntered="1"/>
    <interval begin="900.00" end="1026.00" id="TLSc1_actuated_program_time_loss_InductLoopOn_e1i_0" nVehContrib="0" flow="0.00" occupancy="0.00" speed="-1.00" harmonicMeanSpeed="-1.00" length="-1.00" nVehEntered="0"/>
    <interval begin="900.00" end="1026.00" id="TLSc1_actuated_program_time_loss_InductLoopOn_e1i_1" nVehContrib="1" flow="28.57" occupancy="0.31" speed="12.74" harmonicMeanSpeed="12.74" length="5.00" nVehEntered="1"/>
    <interval begin="900.00" end="1026.00" id="TLSc1_actuated_program_time_loss_InductLoopOn_s1i_0" nVehContrib="0" flow="0.00" occupancy="0.00" speed="-1.00" harmonicMeanSpeed="-1.00" length="-1.00" nVehEntered="0"/>
    <interval begin="900.00" end="1026.00" id="TLSc1_actuated_program_time_loss_InductLoopOn_s1i_1" nVehContrib="1" flow="28.57" occupancy="0.32" speed="12.26" harmonicMeanSpeed="12.26" length="5.00" nVehEntered="1"/>
    <interval begin="900.00" end="1026.00" id="TLSc1_actuated_program_time_loss_InductLoopOn_w1i_0" nVehContrib="0" flow="0.00" occupancy="0.00" speed="-1.00" harmonicMeanSpeed="-1.00" length="-1.00" nVehEntered="0"/>
    <interval begin="900.00" end="1026.00" id="TLSc1_actuated_program_time_loss_InductLoopOn_w1i_1" nVehContrib="0" flow="0.00" occupancy="0.00" speed="-1.00" harmonicMeanSpeed="-1.00" length="-1.00" nVehEntered="0"/>
</detector>
