<?xml version="1.0" encoding="UTF-8"?>

<!-- generated on 2022-02-15 10:25:11 by Eclipse SUMO GUI Version 1.10.0
<configuration xmlns:xsi="http://www.w3.org/2001/XMLSchema-instance" xsi:noNamespaceSchemaLocation="http://sumo.dlr.de/xsd/sumoConfiguration.xsd">

    <input>
        <net-file value="../net-files/config/../topology_grid_3x3/topology.net.xml"/>
        <route-files value="../net-files/routes/veh_route.rou.xml"/>
        <additional-files value="../net-files/config/../topology_grid_3x3/topology.tll.xml,../net-files/config/../topology_grid_3x3/topology.det.xml"/>
    </input>

    <time>
        <begin value="0"/>
    </time>

    <report>
        <verbose value="true"/>
        <no-warnings value="true"/>
        <no-step-log value="true"/>
    </report>

    <traci_server>
        <remote-port value="41107"/>
    </traci_server>

    <gui_only>
        <gui-settings-file value="../net-files/config/../topology_grid_3x3/topology.view.xml"/>
    </gui_only>

</configuration>
-->

<detector xmlns:xsi="http://www.w3.org/2001/XMLSchema-instance" xsi:noNamespaceSchemaLocation="http://sumo.dlr.de/xsd/det_e1_file.xsd">
    <interval begin="0.00" end="1326.00" id="north_s1_c1_loop_0" nVehContrib="132" flow="358.37" occupancy="4.13" speed="12.47" harmonicMeanSpeed="12.19" length="5.00" nVehEntered="138"/>
    <interval begin="0.00" end="1326.00" id="north_s1_c1_loop_1" nVehContrib="43" flow="116.74" occupancy="1.60" speed="12.34" harmonicMeanSpeed="10.13" length="5.00" nVehEntered="43"/>
    <interval begin="0.00" end="1326.00" id="north_s2_c2_loop_0" nVehContrib="97" flow="263.35" occupancy="3.14" speed="12.18" harmonicMeanSpeed="11.82" length="5.00" nVehEntered="99"/>
    <interval begin="0.00" end="1326.00" id="north_s2_c2_loop_1" nVehContrib="41" flow="111.31" occupancy="1.31" speed="12.71" harmonicMeanSpeed="11.78" length="5.00" nVehEntered="41"/>
    <interval begin="0.00" end="1326.00" id="north_s3_c3_loop_0" nVehContrib="140" flow="380.09" occupancy="17.72" speed="10.40" harmonicMeanSpeed="3.07" length="5.00" nVehEntered="146"/>
    <interval begin="0.00" end="1326.00" id="north_s3_c3_loop_1" nVehContrib="83" flow="225.34" occupancy="4.36" speed="10.07" harmonicMeanSpeed="7.48" length="5.00" nVehEntered="84"/>
    <interval begin="0.00" end="1326.00" id="north_c1_c4_loop_0" nVehContrib="119" flow="323.08" occupancy="43.17" speed="9.18" harmonicMeanSpeed="1.04" length="5.00" nVehEntered="120"/>
    <interval begin="0.00" end="1326.00" id="north_c1_c4_loop_1" nVehContrib="46" flow="124.89" occupancy="1.32" speed="13.26" harmonicMeanSpeed="13.11" length="5.00" nVehEntered="46"/>
    <interval begin="0.00" end="1326.00" id="north_c2_c5_loop_0" nVehContrib="111" flow="301.36" occupancy="7.00" speed="8.05" harmonicMeanSpeed="5.98" length="5.00" nVehEntered="111"/>
    <interval begin="0.00" end="1326.00" id="north_c2_c5_loop_1" nVehContrib="47" flow="127.60" occupancy="1.72" speed="11.64" harmonicMeanSpeed="10.28" length="5.00" nVehEntered="47"/>
    <interval begin="0.00" end="1326.00" id="north_c3_c6_loop_0" nVehContrib="132" flow="358.37" occupancy="7.77" speed="8.10" harmonicMeanSpeed="6.41" length="5.00" nVehEntered="132"/>
    <interval begin="0.00" end="1326.00" id="north_c3_c6_loop_1" nVehContrib="54" flow="146.61" occupancy="2.48" speed="10.49" harmonicMeanSpeed="8.21" length="5.00" nVehEntered="54"/>
    <interval begin="0.00" end="1326.00" id="north_c4_c7_loop_0" nVehContrib="116" flow="314.93" occupancy="7.40" speed="8.15" harmonicMeanSpeed="5.95" length="5.00" nVehEntered="118"/>
    <interval begin="0.00" end="1326.00" id="north_c4_c7_loop_1" nVehContrib="50" flow="135.75" occupancy="2.41" speed="9.94" harmonicMeanSpeed="7.81" length="5.00" nVehEntered="50"/>
    <interval begin="0.00" end="1326.00" id="north_c5_c8_loop_0" nVehContrib="109" flow="295.93" occupancy="6.63" speed="8.30" harmonicMeanSpeed="6.19" length="5.00" nVehEntered="109"/>
    <interval begin="0.00" end="1326.00" id="north_c5_c8_loop_1" nVehContrib="25" flow="67.87" occupancy="0.75" speed="12.80" harmonicMeanSpeed="12.54" length="5.00" nVehEntered="25"/>
    <interval begin="0.00" end="1326.00" id="north_c6_c9_loop_0" nVehContrib="133" flow="361.09" occupancy="7.40" speed="8.56" harmonicMeanSpeed="6.77" length="5.00" nVehEntered="133"/>
    <interval begin="0.00" end="1326.00" id="north_c6_c9_loop_1" nVehContrib="40" flow="108.60" occupancy="1.56" speed="11.40" harmonicMeanSpeed="9.66" length="5.00" nVehEntered="40"/>
    <interval begin="0.00" end="1326.00" id="east_w1_c1_loop_0" nVehContrib="136" flow="369.23" occupancy="4.96" speed="12.36" harmonicMeanSpeed="11.28" length="5.00" nVehEntered="140"/>
    <interval begin="0.00" end="1326.00" id="east_w1_c1_loop_1" nVehContrib="52" flow="141.18" occupancy="1.80" speed="12.59" harmonicMeanSpeed="10.87" length="5.00" nVehEntered="52"/>
    <interval begin="0.00" end="1326.00" id="east_w2_c4_loop_0" nVehContrib="108" flow="293.21" occupancy="3.26" speed="12.71" harmonicMeanSpeed="12.56" length="5.00" nVehEntered="110"/>
    <interval begin="0.00" end="1326.00" id="east_w2_c4_loop_1" nVehContrib="32" flow="86.88" occupancy="1.08" speed="12.48" harmonicMeanSpeed="11.22" length="5.00" nVehEntered="32"/>
    <interval begin="0.00" end="1326.00" id="east_w3_c7_loop_0" nVehContrib="113" flow="306.79" occupancy="5.94" speed="11.40" harmonicMeanSpeed="7.35" length="5.00" nVehEntered="121"/>
    <interval begin="0.00" end="1326.00" id="east_w3_c7_loop_1" nVehContrib="65" flow="176.47" occupancy="2.54" speed="11.67" harmonicMeanSpeed="9.64" length="5.00" nVehEntered="65"/>
    <interval begin="0.00" end="1326.00" id="east_c1_c2_loop_0" nVehContrib="110" flow="298.64" occupancy="37.05" speed="9.31" harmonicMeanSpeed="1.12" length="5.00" nVehEntered="110"/>
    <interval begin="0.00" end="1326.00" id="east_c1_c2_loop_1" nVehContrib="45" flow="122.17" occupancy="1.38" speed="12.65" harmonicMeanSpeed="12.33" length="5.00" nVehEntered="45"/>
    <interval begin="0.00" end="1326.00" id="east_c2_c3_loop_0" nVehContrib="109" flow="295.93" occupancy="6.78" speed="8.16" harmonicMeanSpeed="6.06" length="5.00" nVehEntered="109"/>
    <interval begin="0.00" end="1326.00" id="east_c2_c3_loop_1" nVehContrib="31" flow="84.16" occupancy="0.98" speed="12.31" harmonicMeanSpeed="11.93" length="5.00" nVehEntered="31"/>
    <interval begin="0.00" end="1326.00" id="east_c4_c5_loop_0" nVehContrib="105" flow="285.07" occupancy="6.74" speed="8.06" harmonicMeanSpeed="5.87" length="5.00" nVehEntered="105"/>
    <interval begin="0.00" end="1326.00" id="east_c4_c5_loop_1" nVehContrib="37" flow="100.45" occupancy="1.23" speed="12.26" harmonicMeanSpeed="11.37" length="5.00" nVehEntered="37"/>
    <interval begin="0.00" end="1326.00" id="east_c5_c6_loop_0" nVehContrib="105" flow="285.07" occupancy="6.26" speed="8.41" harmonicMeanSpeed="6.32" length="5.00" nVehEntered="105"/>
    <interval begin="0.00" end="1326.00" id="east_c5_c6_loop_1" nVehContrib="39" flow="105.88" occupancy="1.24" speed="12.09" harmonicMeanSpeed="11.89" length="5.00" nVehEntered="39"/>
    <interval begin="0.00" end="1326.00" id="east_c7_c8_loop_0" nVehContrib="114" flow="309.50" occupancy="7.00" speed="8.15" harmonicMeanSpeed="6.14" length="5.00" nVehEntered="114"/>
    <interval begin="0.00" end="1326.00" id="east_c7_c8_loop_1" nVehContrib="54" flow="146.61" occupancy="2.59" speed="10.35" harmonicMeanSpeed="7.96" length="5.00" nVehEntered="55"/>
    <interval begin="0.00" end="1326.00" id="east_c8_c9_loop_0" nVehContrib="105" flow="285.07" occupancy="6.39" speed="8.35" harmonicMeanSpeed="6.20" length="5.00" nVehEntered="105"/>
    <interval begin="0.00" end="1326.00" id="east_c8_c9_loop_1" nVehContrib="38" flow="103.17" occupancy="1.29" speed="11.79" harmonicMeanSpeed="11.10" length="5.00" nVehEntered="38"/>
    <interval begin="0.00" end="1326.00" id="south_n1_c7_loop_0" nVehContrib="113" flow="306.79" occupancy="7.35" speed="11.48" harmonicMeanSpeed="5.89" length="5.00" nVehEntered="117"/>
    <interval begin="0.00" end="1326.00" id="south_n1_c7_loop_1" nVehContrib="59" flow="160.18" occupancy="2.03" speed="12.02" harmonicMeanSpeed="10.93" length="5.00" nVehEntered="59"/>
    <interval begin="0.00" end="1326.00" id="south_n2_c8_loop_0" nVehContrib="126" flow="342.08" occupancy="17.36" speed="10.89" harmonicMeanSpeed="3.05" length="5.00" nVehEntered="134"/>
    <interval begin="0.00" end="1326.00" id="south_n2_c8_loop_1" nVehContrib="85" flow="230.77" occupancy="3.75" speed="11.41" harmonicMeanSpeed="8.55" length="5.00" nVehEntered="85"/>
    <interval begin="0.00" end="1326.00" id="south_n3_c9_loop_0" nVehContrib="139" flow="377.38" occupancy="22.45" speed="10.00" harmonicMeanSpeed="2.40" length="5.00" nVehEntered="144"/>
    <interval begin="0.00" end="1326.00" id="south_n3_c9_loop_1" nVehContrib="86" flow="233.48" occupancy="9.29" speed="9.74" harmonicMeanSpeed="3.79" length="5.00" nVehEntered="89"/>
    <interval begin="0.00" end="1326.00" id="south_c7_c4_loop_0" nVehContrib="134" flow="363.80" occupancy="7.95" speed="8.34" harmonicMeanSpeed="6.35" length="5.00" nVehEntered="134"/>
    <interval begin="0.00" end="1326.00" id="south_c7_c4_loop_1" nVehContrib="37" flow="100.45" occupancy="1.24" speed="11.75" harmonicMeanSpeed="11.29" length="5.00" nVehEntered="37"/>
    <interval begin="0.00" end="1326.00" id="south_c4_c1_loop_0" nVehContrib="142" flow="385.52" occupancy="42.94" speed="9.10" harmonicMeanSpeed="1.26" length="5.00" nVehEntered="143"/>
    <interval begin="0.00" end="1326.00" id="south_c4_c1_loop_1" nVehContrib="23" flow="62.44" occupancy="0.65" speed="13.53" harmonicMeanSpeed="13.40" length="5.00" nVehEntered="23"/>
    <interval begin="0.00" end="1326.00" id="south_c8_c5_loop_0" nVehContrib="157" flow="426.24" occupancy="8.82" speed="8.71" harmonicMeanSpeed="6.71" length="5.00" nVehEntered="157"/>
    <interval begin="0.00" end="1326.00" id="south_c8_c5_loop_1" nVehContrib="76" flow="206.33" occupancy="3.82" speed="9.94" harmonicMeanSpeed="7.49" length="5.00" nVehEntered="76"/>
    <interval begin="0.00" end="1326.00" id="south_c5_c2_loop_0" nVehContrib="152" flow="412.67" occupancy="8.33" speed="8.77" harmonicMeanSpeed="6.88" length="5.00" nVehEntered="152"/>
    <interval begin="0.00" end="1326.00" id="south_c5_c2_loop_1" nVehContrib="54" flow="146.61" occupancy="2.24" speed="11.47" harmonicMeanSpeed="9.08" length="5.00" nVehEntered="54"/>
    <interval begin="0.00" end="1326.00" id="south_c9_c6_loop_0" nVehContrib="132" flow="358.37" occupancy="8.12" speed="7.71" harmonicMeanSpeed="6.13" length="5.00" nVehEntered="132"/>
    <interval begin="0.00" end="1326.00" id="south_c9_c6_loop_1" nVehContrib="69" flow="187.33" occupancy="3.43" speed="9.73" harmonicMeanSpeed="7.57" length="5.00" nVehEntered="69"/>
    <interval begin="0.00" end="1326.00" id="south_c6_c3_loop_0" nVehContrib="108" flow="293.21" occupancy="6.83" speed="7.59" harmonicMeanSpeed="5.96" length="5.00" nVehEntered="108"/>
    <interval begin="0.00" end="1326.00" id="south_c6_c3_loop_1" nVehContrib="42" flow="114.03" occupancy="1.91" speed="10.95" harmonicMeanSpeed="8.31" length="5.00" nVehEntered="42"/>
    <interval begin="0.00" end="1326.00" id="west_e1_c3_loop_0" nVehContrib="99" flow="268.78" occupancy="3.19" speed="12.17" harmonicMeanSpeed="11.78" length="5.00" nVehEntered="101"/>
    <interval begin="0.00" end="1326.00" id="west_e1_c3_loop_1" nVehContrib="28" flow="76.02" occupancy="0.95" speed="12.38" harmonicMeanSpeed="11.11" length="5.00" nVehEntered="28"/>
    <interval begin="0.00" end="1326.00" id="west_e2_c6_loop_0" nVehContrib="102" flow="276.92" occupancy="3.30" speed="12.10" harmonicMeanSpeed="11.76" length="5.00" nVehEntered="106"/>
    <interval begin="0.00" end="1326.00" id="west_e2_c6_loop_1" nVehContrib="36" flow="97.74" occupancy="1.31" speed="12.33" harmonicMeanSpeed="10.40" length="5.00" nVehEntered="36"/>
    <interval begin="0.00" end="1326.00" id="west_e3_c9_loop_0" nVehContrib="131" flow="355.66" occupancy="14.21" speed="10.11" harmonicMeanSpeed="3.88" length="5.00" nVehEntered="140"/>
    <interval begin="0.00" end="1326.00" id="west_e3_c9_loop_1" nVehContrib="87" flow="236.20" occupancy="4.26" speed="10.63" harmonicMeanSpeed="7.70" length="5.00" nVehEntered="87"/>
    <interval begin="0.00" end="1326.00" id="west_c3_c2_loop_0" nVehContrib="104" flow="282.35" occupancy="6.59" speed="8.06" harmonicMeanSpeed="5.95" length="5.00" nVehEntered="104"/>
    <interval begin="0.00" end="1326.00" id="west_c3_c2_loop_1" nVehContrib="43" flow="116.74" occupancy="1.34" speed="12.32" harmonicMeanSpeed="12.14" length="5.00" nVehEntered="43"/>
    <interval begin="0.00" end="1326.00" id="west_c2_c1_loop_0" nVehContrib="113" flow="306.79" occupancy="39.54" speed="9.56" harmonicMeanSpeed="1.08" length="5.00" nVehEntered="113"/>
    <interval begin="0.00" end="1326.00" id="west_c2_c1_loop_1" nVehContrib="26" flow="70.59" occupancy="0.74" speed="13.43" harmonicMeanSpeed="13.34" length="5.00" nVehEntered="26"/>
    <interval begin="0.00" end="1326.00" id="west_c6_c5_loop_0" nVehContrib="110" flow="298.64" occupancy="6.72" speed="8.50" harmonicMeanSpeed="6.17" length="5.00" nVehEntered="110"/>
    <interval begin="0.00" end="1326.00" id="west_c6_c5_loop_1" nVehContrib="60" flow="162.90" occupancy="2.63" speed="10.60" harmonicMeanSpeed="8.60" length="5.00" nVehEntered="60"/>
    <interval begin="0.00" end="1326.00" id="west_c5_c4_loop_0" nVehContrib="128" flow="347.51" occupancy="7.48" speed="8.29" harmonicMeanSpeed="6.47" length="5.00" nVehEntered="129"/>
    <interval begin="0.00" end="1326.00" id="west_c5_c4_loop_1" nVehContrib="41" flow="111.31" occupancy="1.65" speed="11.56" harmonicMeanSpeed="9.37" length="5.00" nVehEntered="41"/>
    <interval begin="0.00" end="1326.00" id="west_c9_c8_loop_0" nVehContrib="126" flow="342.08" occupancy="7.84" speed="7.98" harmonicMeanSpeed="6.06" length="5.00" nVehEntered="127"/>
    <interval begin="0.00" end="1326.00" id="west_c9_c8_loop_1" nVehContrib="77" flow="209.05" occupancy="5.32" speed="8.42" harmonicMeanSpeed="5.54" length="5.00" nVehEntered="78"/>
    <interval begin="0.00" end="1326.00" id="west_c8_c7_loop_0" nVehContrib="105" flow="285.07" occupancy="6.34" speed="8.18" harmonicMeanSpeed="6.25" length="5.00" nVehEntered="105"/>
    <interval begin="0.00" end="1326.00" id="west_c8_c7_loop_1" nVehContrib="34" flow="92.31" occupancy="1.10" speed="11.92" harmonicMeanSpeed="11.60" length="5.00" nVehEntered="34"/>
</detector>
